<?xml version="1.0" encoding="UTF-8"?>

<!-- generated on 12/28/20 23:54:55 by Eclipse SUMO sumo Version 1.8.0
<configuration xmlns:xsi="http://www.w3.org/2001/XMLSchema-instance" xsi:noNamespaceSchemaLocation="http://sumo.dlr.de/xsd/sumoConfiguration.xsd">

    <input>
        <net-file value="data2/double.net.xml"/>
        <route-files value="data2/double.rou.xml"/>
    </input>

    <output>
        <tripinfo-output value="tripinfo2.xml"/>
    </output>

    <time>
        <begin value="0"/>
        <end value="86400"/>
    </time>

    <report>
        <verbose value="false"/>
        <no-step-log value="true"/>
    </report>

    <traci_server>
        <remote-port value="8873"/>
    </traci_server>

</configuration>
-->

<tripinfos xmlns:xsi="http://www.w3.org/2001/XMLSchema-instance" xsi:noNamespaceSchemaLocation="http://sumo.dlr.de/xsd/tripinfo_file.xsd">
    <tripinfo id="flow_0.0" depart="0.00" departLane="-gneE14_0" departPos="5.10" departSpeed="0.00" departDelay="0.00" arrival="33.00" arrivalLane="gneE10_0" arrivalPos="100.00" arrivalSpeed="13.87" duration="33.00" routeLength="395.10" waitingTime="0.00" waitingCount="0" stopTime="0.00" timeLoss="4.49" rerouteNo="0" devices="tripinfo_flow_0.0 routing_flow_0.0" vType="DEFAULT_VEHTYPE" speedFactor="1.01" vaporized=""/>
    <tripinfo id="flow_0.1" depart="3.00" departLane="-gneE14_0" departPos="5.10" departSpeed="0.00" departDelay="1.00" arrival="37.00" arrivalLane="gneE10_0" arrivalPos="100.00" arrivalSpeed="12.65" duration="34.00" routeLength="395.10" waitingTime="0.00" waitingCount="0" stopTime="0.00" timeLoss="4.46" rerouteNo="0" devices="tripinfo_flow_0.1 routing_flow_0.1" vType="DEFAULT_VEHTYPE" speedFactor="0.99" vaporized=""/>
    <tripinfo id="flow_0.3" depart="9.00" departLane="-gneE14_0" departPos="5.10" departSpeed="0.00" departDelay="3.00" arrival="40.00" arrivalLane="gneE10_1" arrivalPos="100.00" arrivalSpeed="14.12" duration="31.00" routeLength="395.10" waitingTime="0.00" waitingCount="0" stopTime="0.00" timeLoss="4.44" rerouteNo="0" devices="tripinfo_flow_0.3 routing_flow_0.3" vType="DEFAULT_VEHTYPE" speedFactor="1.10" vaporized=""/>
    <tripinfo id="flow_4.0" depart="6.00" departLane="-gneE10_0" departPos="5.10" departSpeed="0.00" departDelay="6.00" arrival="41.00" arrivalLane="gneE14_1" arrivalPos="100.00" arrivalSpeed="12.97" duration="35.00" routeLength="395.10" waitingTime="0.00" waitingCount="0" stopTime="0.00" timeLoss="3.95" rerouteNo="0" devices="tripinfo_flow_4.0 routing_flow_4.0" vType="DEFAULT_VEHTYPE" speedFactor="0.94" vaporized=""/>
    <tripinfo id="flow_11.0" depart="3.00" departLane="-gneE10_0" departPos="5.10" departSpeed="0.00" departDelay="3.00" arrival="42.00" arrivalLane="gneE14_0" arrivalPos="100.00" arrivalSpeed="11.39" duration="39.00" routeLength="395.10" waitingTime="0.00" waitingCount="0" stopTime="0.00" timeLoss="4.37" rerouteNo="0" devices="tripinfo_flow_11.0 routing_flow_11.0" vType="DEFAULT_VEHTYPE" speedFactor="0.83" vaporized=""/>
    <tripinfo id="flow_0.2" depart="6.00" departLane="-gneE14_0" departPos="5.10" departSpeed="0.00" departDelay="2.00" arrival="42.00" arrivalLane="gneE10_0" arrivalPos="100.00" arrivalSpeed="12.30" duration="36.00" routeLength="395.10" waitingTime="0.00" waitingCount="0" stopTime="0.00" timeLoss="4.37" rerouteNo="0" devices="tripinfo_flow_0.2 routing_flow_0.2" vType="DEFAULT_VEHTYPE" speedFactor="0.92" vaporized=""/>
    <tripinfo id="flow_5.0" depart="9.00" departLane="-gneE10_0" departPos="5.10" departSpeed="0.00" departDelay="9.00" arrival="48.00" arrivalLane="gneE9_2" arrivalPos="100.00" arrivalSpeed="11.59" duration="39.00" routeLength="392.41" waitingTime="0.00" waitingCount="0" stopTime="0.00" timeLoss="4.73" rerouteNo="0" devices="tripinfo_flow_5.0 routing_flow_5.0" vType="DEFAULT_VEHTYPE" speedFactor="0.86" vaporized=""/>
    <tripinfo id="flow_5.1" depart="21.00" departLane="-gneE10_0" departPos="5.10" departSpeed="0.00" departDelay="19.00" arrival="60.00" arrivalLane="gneE9_2" arrivalPos="100.00" arrivalSpeed="13.10" duration="39.00" routeLength="392.41" waitingTime="1.00" waitingCount="1" stopTime="0.00" timeLoss="10.10" rerouteNo="0" devices="tripinfo_flow_5.1 routing_flow_5.1" vType="DEFAULT_VEHTYPE" speedFactor="1.01" vaporized=""/>
    <tripinfo id="flow_1.0" depart="0.00" departLane="-gneE10_0" departPos="5.10" departSpeed="0.00" departDelay="0.00" arrival="61.00" arrivalLane="gneE11_0" arrivalPos="100.00" arrivalSpeed="14.64" duration="61.00" routeLength="558.86" waitingTime="10.00" waitingCount="1" stopTime="0.00" timeLoss="22.73" rerouteNo="0" devices="tripinfo_flow_1.0 routing_flow_1.0" vType="DEFAULT_VEHTYPE" speedFactor="1.08" vaporized=""/>
    <tripinfo id="vehicle_0" depart="0.00" departLane="-gneE9_0" departPos="5.10" departSpeed="0.00" departDelay="0.00" arrival="96.00" arrivalLane="gneE10_0" arrivalPos="100.00" arrivalSpeed="14.10" duration="96.00" routeLength="376.93" waitingTime="61.00" waitingCount="1" stopTime="0.00" timeLoss="69.48" rerouteNo="1" devices="tripinfo_vehicle_0 routing_vehicle_0" vType="DEFAULT_VEHTYPE" speedFactor="1.06" vaporized=""/>
    <tripinfo id="flow_9.0" depart="8.00" departLane="-gneE11_0" departPos="5.10" departSpeed="0.00" departDelay="8.00" arrival="97.00" arrivalLane="gneE9_0" arrivalPos="100.00" arrivalSpeed="15.20" duration="89.00" routeLength="592.51" waitingTime="37.00" waitingCount="1" stopTime="0.00" timeLoss="49.68" rerouteNo="0" devices="tripinfo_flow_9.0 routing_flow_9.0" vType="DEFAULT_VEHTYPE" speedFactor="1.12" vaporized=""/>
    <tripinfo id="flow_9.1" depart="18.00" departLane="-gneE11_0" departPos="5.10" departSpeed="0.00" departDelay="16.00" arrival="101.00" arrivalLane="gneE9_0" arrivalPos="100.00" arrivalSpeed="10.93" duration="83.00" routeLength="592.51" waitingTime="21.00" waitingCount="1" stopTime="0.00" timeLoss="32.87" rerouteNo="0" devices="tripinfo_flow_9.1 routing_flow_9.1" vType="DEFAULT_VEHTYPE" speedFactor="0.87" vaporized=""/>
    <tripinfo id="flow_3.0" depart="6.00" departLane="-gneE9_0" departPos="5.10" departSpeed="0.00" departDelay="6.00" arrival="102.00" arrivalLane="gneE10_0" arrivalPos="100.00" arrivalSpeed="11.63" duration="96.00" routeLength="376.93" waitingTime="54.00" waitingCount="1" stopTime="0.00" timeLoss="63.78" rerouteNo="0" devices="tripinfo_flow_3.0 routing_flow_3.0" vType="DEFAULT_VEHTYPE" speedFactor="0.89" vaporized=""/>
    <tripinfo id="flow_7.0" depart="2.00" departLane="-gneE11_0" departPos="5.10" departSpeed="0.00" departDelay="2.00" arrival="102.00" arrivalLane="gneE12_0" arrivalPos="100.00" arrivalSpeed="13.23" duration="100.00" routeLength="376.93" waitingTime="63.00" waitingCount="1" stopTime="0.00" timeLoss="72.89" rerouteNo="0" devices="tripinfo_flow_7.0 routing_flow_7.0" vType="DEFAULT_VEHTYPE" speedFactor="1.03" vaporized=""/>
    <tripinfo id="flow_8.0" depart="5.00" departLane="-gneE11_0" departPos="5.10" departSpeed="0.00" departDelay="5.00" arrival="103.00" arrivalLane="gneE13_1" arrivalPos="100.00" arrivalSpeed="14.20" duration="98.00" routeLength="395.10" waitingTime="60.00" waitingCount="1" stopTime="0.00" timeLoss="70.28" rerouteNo="0" devices="tripinfo_flow_8.0 routing_flow_8.0" vType="DEFAULT_VEHTYPE" speedFactor="1.05" vaporized=""/>
    <tripinfo id="flow_3.1" depart="12.00" departLane="-gneE9_0" departPos="5.10" departSpeed="0.00" departDelay="10.00" arrival="103.00" arrivalLane="gneE10_0" arrivalPos="100.00" arrivalSpeed="14.25" duration="91.00" routeLength="376.93" waitingTime="52.00" waitingCount="1" stopTime="0.00" timeLoss="67.10" rerouteNo="0" devices="tripinfo_flow_3.1 routing_flow_3.1" vType="DEFAULT_VEHTYPE" speedFactor="1.16" vaporized=""/>
    <tripinfo id="flow_3.2" depart="18.00" departLane="-gneE9_0" departPos="5.10" departSpeed="0.00" departDelay="14.00" arrival="105.00" arrivalLane="gneE10_0" arrivalPos="100.00" arrivalSpeed="14.85" duration="87.00" routeLength="376.93" waitingTime="47.00" waitingCount="1" stopTime="0.00" timeLoss="62.08" rerouteNo="0" devices="tripinfo_flow_3.2 routing_flow_3.2" vType="DEFAULT_VEHTYPE" speedFactor="1.15" vaporized=""/>
    <tripinfo id="flow_8.2" depart="25.00" departLane="-gneE11_0" departPos="5.10" departSpeed="0.00" departDelay="21.00" arrival="106.00" arrivalLane="gneE13_1" arrivalPos="100.00" arrivalSpeed="13.43" duration="81.00" routeLength="395.10" waitingTime="42.00" waitingCount="1" stopTime="0.00" timeLoss="51.50" rerouteNo="0" devices="tripinfo_flow_8.2 routing_flow_8.2" vType="DEFAULT_VEHTYPE" speedFactor="0.97" vaporized=""/>
    <tripinfo id="flow_7.1" depart="12.00" departLane="-gneE11_0" departPos="5.10" departSpeed="0.00" departDelay="10.00" arrival="107.00" arrivalLane="gneE12_0" arrivalPos="100.00" arrivalSpeed="11.70" duration="95.00" routeLength="376.93" waitingTime="53.00" waitingCount="1" stopTime="0.00" timeLoss="62.91" rerouteNo="0" devices="tripinfo_flow_7.1 routing_flow_7.1" vType="DEFAULT_VEHTYPE" speedFactor="0.89" vaporized=""/>
    <tripinfo id="flow_8.1" depart="15.00" departLane="-gneE11_0" departPos="5.10" departSpeed="0.00" departDelay="13.00" arrival="107.00" arrivalLane="gneE13_1" arrivalPos="100.00" arrivalSpeed="10.43" duration="92.00" routeLength="395.10" waitingTime="46.00" waitingCount="2" stopTime="0.00" timeLoss="56.85" rerouteNo="0" devices="tripinfo_flow_8.1 routing_flow_8.1" vType="DEFAULT_VEHTYPE" speedFactor="0.83" vaporized=""/>
    <tripinfo id="flow_3.3" depart="24.00" departLane="-gneE9_0" departPos="5.10" departSpeed="0.00" departDelay="18.00" arrival="107.00" arrivalLane="gneE10_0" arrivalPos="100.00" arrivalSpeed="13.52" duration="83.00" routeLength="376.93" waitingTime="43.00" waitingCount="1" stopTime="0.00" timeLoss="55.83" rerouteNo="0" devices="tripinfo_flow_3.3 routing_flow_3.3" vType="DEFAULT_VEHTYPE" speedFactor="1.04" vaporized=""/>
    <tripinfo id="flow_3.4" depart="30.00" departLane="-gneE9_0" departPos="5.10" departSpeed="0.00" departDelay="22.00" arrival="110.00" arrivalLane="gneE10_0" arrivalPos="100.00" arrivalSpeed="13.65" duration="80.00" routeLength="376.93" waitingTime="39.00" waitingCount="1" stopTime="0.00" timeLoss="51.34" rerouteNo="0" devices="tripinfo_flow_3.4 routing_flow_3.4" vType="DEFAULT_VEHTYPE" speedFactor="1.00" vaporized=""/>
    <tripinfo id="vehicle_1" depart="0.00" departLane="gneE1_0" departPos="5.10" departSpeed="0.00" departDelay="0.00" arrival="114.00" arrivalLane="gneE10_2" arrivalPos="100.00" arrivalSpeed="11.77" duration="114.00" routeLength="292.31" waitingTime="80.00" waitingCount="2" stopTime="0.00" timeLoss="90.99" rerouteNo="0" devices="tripinfo_vehicle_1 routing_vehicle_1" vType="DEFAULT_VEHTYPE" speedFactor="0.94" vaporized=""/>
    <tripinfo id="flow_10.0" depart="0.00" departLane="-gneE11_0" departPos="5.10" departSpeed="0.00" departDelay="0.00" arrival="116.00" arrivalLane="gneE10_2" arrivalPos="100.00" arrivalSpeed="13.82" duration="116.00" routeLength="589.82" waitingTime="57.00" waitingCount="2" stopTime="0.00" timeLoss="73.35" rerouteNo="0" devices="tripinfo_flow_10.0 routing_flow_10.0" vType="DEFAULT_VEHTYPE" speedFactor="1.03" vaporized=""/>
    <tripinfo id="flow_10.1" depart="10.00" departLane="-gneE11_0" departPos="5.10" departSpeed="0.00" departDelay="8.00" arrival="133.00" arrivalLane="gneE10_2" arrivalPos="100.00" arrivalSpeed="10.92" duration="123.00" routeLength="589.82" waitingTime="56.00" waitingCount="3" stopTime="0.00" timeLoss="73.11" rerouteNo="0" devices="tripinfo_flow_10.1 routing_flow_10.1" vType="DEFAULT_VEHTYPE" speedFactor="0.88" vaporized=""/>
    <tripinfo id="flow_10.2" depart="20.00" departLane="-gneE11_0" departPos="5.10" departSpeed="0.00" departDelay="16.00" arrival="135.00" arrivalLane="gneE10_2" arrivalPos="100.00" arrivalSpeed="14.89" duration="115.00" routeLength="589.82" waitingTime="45.00" waitingCount="3" stopTime="0.00" timeLoss="75.79" rerouteNo="0" devices="tripinfo_flow_10.2 routing_flow_10.2" vType="DEFAULT_VEHTYPE" speedFactor="1.13" vaporized=""/>
    <tripinfo id="flow_10.3" depart="30.00" departLane="-gneE11_0" departPos="5.10" departSpeed="0.00" departDelay="24.00" arrival="136.00" arrivalLane="gneE10_2" arrivalPos="100.00" arrivalSpeed="14.25" duration="106.00" routeLength="589.82" waitingTime="43.00" waitingCount="2" stopTime="0.00" timeLoss="63.60" rerouteNo="0" devices="tripinfo_flow_10.3 routing_flow_10.3" vType="DEFAULT_VEHTYPE" speedFactor="1.03" vaporized=""/>
    <tripinfo id="flow_2.2" depart="15.00" departLane="-gneE9_0" departPos="5.10" departSpeed="0.00" departDelay="11.00" arrival="147.00" arrivalLane="gneE12_0" arrivalPos="100.00" arrivalSpeed="16.02" duration="132.00" routeLength="595.20" waitingTime="77.00" waitingCount="2" stopTime="0.00" timeLoss="94.90" rerouteNo="0" devices="tripinfo_flow_2.2 routing_flow_2.2" vType="DEFAULT_VEHTYPE" speedFactor="1.18" vaporized=""/>
    <tripinfo id="flow_0.5" depart="15.00" departLane="-gneE14_0" departPos="5.10" departSpeed="0.00" departDelay="5.00" arrival="147.00" arrivalLane="gneE10_0" arrivalPos="100.00" arrivalSpeed="13.88" duration="132.00" routeLength="395.10" waitingTime="93.00" waitingCount="1" stopTime="0.00" timeLoss="103.94" rerouteNo="0" devices="tripinfo_flow_0.5 routing_flow_0.5" vType="DEFAULT_VEHTYPE" speedFactor="1.02" vaporized=""/>
    <tripinfo id="flow_11.1" depart="15.00" departLane="-gneE10_0" departPos="5.10" departSpeed="0.00" departDelay="13.00" arrival="148.00" arrivalLane="gneE14_1" arrivalPos="100.00" arrivalSpeed="12.58" duration="133.00" routeLength="395.10" waitingTime="92.00" waitingCount="1" stopTime="0.00" timeLoss="102.77" rerouteNo="0" devices="tripinfo_flow_11.1 routing_flow_11.1" vType="DEFAULT_VEHTYPE" speedFactor="0.94" vaporized=""/>
    <tripinfo id="flow_11.2" depart="26.00" departLane="-gneE10_0" departPos="5.10" departSpeed="0.00" departDelay="22.00" arrival="148.00" arrivalLane="gneE14_2" arrivalPos="100.00" arrivalSpeed="12.08" duration="122.00" routeLength="395.10" waitingTime="83.00" waitingCount="1" stopTime="0.00" timeLoss="91.34" rerouteNo="0" devices="tripinfo_flow_11.2 routing_flow_11.2" vType="DEFAULT_VEHTYPE" speedFactor="0.93" vaporized=""/>
    <tripinfo id="flow_0.7" depart="21.00" departLane="-gneE14_0" departPos="5.10" departSpeed="0.00" departDelay="7.00" arrival="148.00" arrivalLane="gneE10_2" arrivalPos="100.00" arrivalSpeed="13.37" duration="127.00" routeLength="395.10" waitingTime="86.00" waitingCount="1" stopTime="0.00" timeLoss="98.02" rerouteNo="0" devices="tripinfo_flow_0.7 routing_flow_0.7" vType="DEFAULT_VEHTYPE" speedFactor="1.00" vaporized=""/>
    <tripinfo id="flow_2.0" depart="3.00" departLane="-gneE9_0" departPos="5.10" departSpeed="0.00" departDelay="3.00" arrival="149.00" arrivalLane="gneE12_0" arrivalPos="100.00" arrivalSpeed="13.59" duration="146.00" routeLength="595.20" waitingTime="88.00" waitingCount="2" stopTime="0.00" timeLoss="104.37" rerouteNo="0" devices="tripinfo_flow_2.0 routing_flow_2.0" vType="DEFAULT_VEHTYPE" speedFactor="1.05" vaporized=""/>
    <tripinfo id="flow_2.1" depart="9.00" departLane="-gneE9_0" departPos="5.10" departSpeed="0.00" departDelay="7.00" arrival="149.00" arrivalLane="gneE12_1" arrivalPos="100.00" arrivalSpeed="13.00" duration="140.00" routeLength="595.20" waitingTime="78.00" waitingCount="2" stopTime="0.00" timeLoss="94.13" rerouteNo="0" devices="tripinfo_flow_2.1 routing_flow_2.1" vType="DEFAULT_VEHTYPE" speedFactor="0.94" vaporized=""/>
    <tripinfo id="flow_4.1" depart="18.00" departLane="-gneE10_0" departPos="5.10" departSpeed="0.00" departDelay="16.00" arrival="149.00" arrivalLane="gneE14_0" arrivalPos="100.00" arrivalSpeed="13.15" duration="131.00" routeLength="395.10" waitingTime="94.00" waitingCount="1" stopTime="0.00" timeLoss="102.62" rerouteNo="0" devices="tripinfo_flow_4.1 routing_flow_4.1" vType="DEFAULT_VEHTYPE" speedFactor="1.02" vaporized=""/>
    <tripinfo id="flow_0.8" depart="24.00" departLane="-gneE14_0" departPos="5.10" departSpeed="0.00" departDelay="8.00" arrival="149.00" arrivalLane="gneE10_1" arrivalPos="100.00" arrivalSpeed="15.12" duration="125.00" routeLength="395.10" waitingTime="87.00" waitingCount="1" stopTime="0.00" timeLoss="98.97" rerouteNo="0" devices="tripinfo_flow_0.8 routing_flow_0.8" vType="DEFAULT_VEHTYPE" speedFactor="1.12" vaporized=""/>
    <tripinfo id="flow_4.2" depart="29.00" departLane="-gneE10_0" departPos="5.10" departSpeed="0.00" departDelay="25.00" arrival="150.00" arrivalLane="gneE14_1" arrivalPos="100.00" arrivalSpeed="12.92" duration="121.00" routeLength="395.10" waitingTime="82.00" waitingCount="1" stopTime="0.00" timeLoss="92.36" rerouteNo="0" devices="tripinfo_flow_4.2 routing_flow_4.2" vType="DEFAULT_VEHTYPE" speedFactor="1.01" vaporized=""/>
    <tripinfo id="flow_2.3" depart="21.00" departLane="-gneE9_0" departPos="5.10" departSpeed="0.00" departDelay="15.00" arrival="150.00" arrivalLane="gneE12_2" arrivalPos="100.00" arrivalSpeed="15.13" duration="129.00" routeLength="595.20" waitingTime="68.00" waitingCount="2" stopTime="0.00" timeLoss="89.15" rerouteNo="0" devices="tripinfo_flow_2.3 routing_flow_2.3" vType="DEFAULT_VEHTYPE" speedFactor="1.09" vaporized=""/>
    <tripinfo id="flow_0.4" depart="12.00" departLane="-gneE14_0" departPos="5.10" departSpeed="0.00" departDelay="4.00" arrival="150.00" arrivalLane="gneE10_0" arrivalPos="100.00" arrivalSpeed="11.70" duration="138.00" routeLength="395.10" waitingTime="94.00" waitingCount="1" stopTime="0.00" timeLoss="104.21" rerouteNo="0" devices="tripinfo_flow_0.4 routing_flow_0.4" vType="DEFAULT_VEHTYPE" speedFactor="0.85" vaporized=""/>
    <tripinfo id="flow_0.10" depart="30.00" departLane="-gneE14_0" departPos="5.10" departSpeed="0.00" departDelay="10.00" arrival="150.00" arrivalLane="gneE10_2" arrivalPos="100.00" arrivalSpeed="14.18" duration="120.00" routeLength="395.10" waitingTime="79.00" waitingCount="1" stopTime="0.00" timeLoss="91.70" rerouteNo="0" devices="tripinfo_flow_0.10 routing_flow_0.10" vType="DEFAULT_VEHTYPE" speedFactor="1.03" vaporized=""/>
    <tripinfo id="flow_0.11" depart="33.00" departLane="-gneE14_0" departPos="5.10" departSpeed="0.00" departDelay="11.00" arrival="150.00" arrivalLane="gneE10_1" arrivalPos="100.00" arrivalSpeed="16.66" duration="117.00" routeLength="395.10" waitingTime="79.00" waitingCount="1" stopTime="0.00" timeLoss="93.68" rerouteNo="0" devices="tripinfo_flow_0.11 routing_flow_0.11" vType="DEFAULT_VEHTYPE" speedFactor="1.23" vaporized=""/>
    <tripinfo id="flow_2.4" depart="27.00" departLane="-gneE9_0" departPos="5.10" departSpeed="0.00" departDelay="19.00" arrival="151.00" arrivalLane="gneE12_1" arrivalPos="100.00" arrivalSpeed="13.38" duration="124.00" routeLength="595.20" waitingTime="65.00" waitingCount="2" stopTime="0.00" timeLoss="80.96" rerouteNo="0" devices="tripinfo_flow_2.4 routing_flow_2.4" vType="DEFAULT_VEHTYPE" speedFactor="1.00" vaporized=""/>
    <tripinfo id="flow_2.6" depart="39.00" departLane="-gneE9_0" departPos="5.10" departSpeed="0.00" departDelay="27.00" arrival="151.00" arrivalLane="gneE12_0" arrivalPos="100.00" arrivalSpeed="13.65" duration="112.00" routeLength="595.20" waitingTime="47.00" waitingCount="2" stopTime="0.00" timeLoss="68.72" rerouteNo="0" devices="tripinfo_flow_2.6 routing_flow_2.6" vType="DEFAULT_VEHTYPE" speedFactor="1.01" vaporized=""/>
    <tripinfo id="flow_0.14" depart="42.00" departLane="-gneE14_0" departPos="5.10" departSpeed="0.00" departDelay="14.00" arrival="151.00" arrivalLane="gneE10_2" arrivalPos="100.00" arrivalSpeed="14.10" duration="109.00" routeLength="395.10" waitingTime="70.00" waitingCount="1" stopTime="0.00" timeLoss="82.82" rerouteNo="0" devices="tripinfo_flow_0.14 routing_flow_0.14" vType="DEFAULT_VEHTYPE" speedFactor="1.09" vaporized=""/>
    <tripinfo id="flow_11.3" depart="37.00" departLane="-gneE10_0" departPos="5.10" departSpeed="0.00" departDelay="31.00" arrival="152.00" arrivalLane="gneE14_1" arrivalPos="100.00" arrivalSpeed="12.28" duration="115.00" routeLength="395.10" waitingTime="74.00" waitingCount="1" stopTime="0.00" timeLoss="84.80" rerouteNo="0" devices="tripinfo_flow_11.3 routing_flow_11.3" vType="DEFAULT_VEHTYPE" speedFactor="0.96" vaporized=""/>
    <tripinfo id="flow_0.6" depart="18.00" departLane="-gneE14_0" departPos="5.10" departSpeed="0.00" departDelay="6.00" arrival="152.00" arrivalLane="gneE10_0" arrivalPos="100.00" arrivalSpeed="12.40" duration="134.00" routeLength="395.10" waitingTime="92.00" waitingCount="1" stopTime="0.00" timeLoss="103.48" rerouteNo="0" devices="tripinfo_flow_0.6 routing_flow_0.6" vType="DEFAULT_VEHTYPE" speedFactor="0.96" vaporized=""/>
    <tripinfo id="flow_0.9" depart="27.00" departLane="-gneE14_0" departPos="5.10" departSpeed="0.00" departDelay="9.00" arrival="153.00" arrivalLane="gneE10_0" arrivalPos="100.00" arrivalSpeed="12.75" duration="126.00" routeLength="395.10" waitingTime="84.00" waitingCount="1" stopTime="0.00" timeLoss="95.31" rerouteNo="0" devices="tripinfo_flow_0.9 routing_flow_0.9" vType="DEFAULT_VEHTYPE" speedFactor="0.93" vaporized=""/>
    <tripinfo id="flow_4.3" depart="40.00" departLane="-gneE10_0" departPos="5.10" departSpeed="0.00" departDelay="34.00" arrival="154.00" arrivalLane="gneE14_1" arrivalPos="100.00" arrivalSpeed="14.36" duration="114.00" routeLength="395.10" waitingTime="73.00" waitingCount="1" stopTime="0.00" timeLoss="85.84" rerouteNo="0" devices="tripinfo_flow_4.3 routing_flow_4.3" vType="DEFAULT_VEHTYPE" speedFactor="1.04" vaporized=""/>
    <tripinfo id="flow_0.16" depart="48.00" departLane="-gneE14_0" departPos="5.10" departSpeed="0.00" departDelay="16.00" arrival="154.00" arrivalLane="gneE10_2" arrivalPos="100.00" arrivalSpeed="13.37" duration="106.00" routeLength="395.10" waitingTime="65.00" waitingCount="1" stopTime="0.00" timeLoss="76.62" rerouteNo="0" devices="tripinfo_flow_0.16 routing_flow_0.16" vType="DEFAULT_VEHTYPE" speedFactor="1.00" vaporized=""/>
    <tripinfo id="flow_0.12" depart="36.00" departLane="-gneE14_0" departPos="5.10" departSpeed="0.00" departDelay="12.00" arrival="155.00" arrivalLane="gneE10_0" arrivalPos="100.00" arrivalSpeed="11.11" duration="119.00" routeLength="395.10" waitingTime="76.00" waitingCount="1" stopTime="0.00" timeLoss="86.86" rerouteNo="0" devices="tripinfo_flow_0.12 routing_flow_0.12" vType="DEFAULT_VEHTYPE" speedFactor="0.89" vaporized=""/>
    <tripinfo id="flow_0.13" depart="39.00" departLane="-gneE14_0" departPos="5.10" departSpeed="0.00" departDelay="13.00" arrival="155.00" arrivalLane="gneE10_1" arrivalPos="100.00" arrivalSpeed="11.70" duration="116.00" routeLength="395.10" waitingTime="69.00" waitingCount="1" stopTime="0.00" timeLoss="84.27" rerouteNo="0" devices="tripinfo_flow_0.13 routing_flow_0.13" vType="DEFAULT_VEHTYPE" speedFactor="0.91" vaporized=""/>
    <tripinfo id="flow_0.19" depart="57.00" departLane="-gneE14_0" departPos="5.10" departSpeed="0.00" departDelay="19.00" arrival="155.00" arrivalLane="gneE10_2" arrivalPos="100.00" arrivalSpeed="13.31" duration="98.00" routeLength="395.10" waitingTime="58.00" waitingCount="1" stopTime="0.00" timeLoss="70.55" rerouteNo="0" devices="tripinfo_flow_0.19 routing_flow_0.19" vType="DEFAULT_VEHTYPE" speedFactor="1.04" vaporized=""/>
    <tripinfo id="flow_4.4" depart="51.00" departLane="-gneE10_0" departPos="5.10" departSpeed="0.00" departDelay="43.00" arrival="157.00" arrivalLane="gneE14_1" arrivalPos="100.00" arrivalSpeed="12.11" duration="106.00" routeLength="395.10" waitingTime="62.00" waitingCount="1" stopTime="0.00" timeLoss="73.91" rerouteNo="0" devices="tripinfo_flow_4.4 routing_flow_4.4" vType="DEFAULT_VEHTYPE" speedFactor="0.90" vaporized=""/>
    <tripinfo id="flow_0.15" depart="45.00" departLane="-gneE14_0" departPos="5.10" departSpeed="0.00" departDelay="15.00" arrival="157.00" arrivalLane="gneE10_0" arrivalPos="100.00" arrivalSpeed="13.96" duration="112.00" routeLength="395.10" waitingTime="70.00" waitingCount="1" stopTime="0.00" timeLoss="83.79" rerouteNo="0" devices="tripinfo_flow_0.15 routing_flow_0.15" vType="DEFAULT_VEHTYPE" speedFactor="1.03" vaporized=""/>
    <tripinfo id="flow_0.17" depart="51.00" departLane="-gneE14_0" departPos="5.10" departSpeed="0.00" departDelay="17.00" arrival="157.00" arrivalLane="gneE10_1" arrivalPos="100.00" arrivalSpeed="13.73" duration="106.00" routeLength="395.10" waitingTime="63.00" waitingCount="1" stopTime="0.00" timeLoss="76.81" rerouteNo="0" devices="tripinfo_flow_0.17 routing_flow_0.17" vType="DEFAULT_VEHTYPE" speedFactor="1.00" vaporized=""/>
    <tripinfo id="flow_0.20" depart="60.00" departLane="-gneE14_0" departPos="5.10" departSpeed="0.00" departDelay="20.00" arrival="158.00" arrivalLane="gneE10_1" arrivalPos="100.00" arrivalSpeed="12.43" duration="98.00" routeLength="395.10" waitingTime="56.00" waitingCount="1" stopTime="0.00" timeLoss="68.57" rerouteNo="0" devices="tripinfo_flow_0.20 routing_flow_0.20" vType="DEFAULT_VEHTYPE" speedFactor="0.97" vaporized=""/>
    <tripinfo id="flow_0.22" depart="66.00" departLane="-gneE14_0" departPos="5.10" departSpeed="0.00" departDelay="22.00" arrival="158.00" arrivalLane="gneE10_2" arrivalPos="100.00" arrivalSpeed="12.95" duration="92.00" routeLength="395.10" waitingTime="49.00" waitingCount="1" stopTime="0.00" timeLoss="62.39" rerouteNo="0" devices="tripinfo_flow_0.22 routing_flow_0.22" vType="DEFAULT_VEHTYPE" speedFactor="0.98" vaporized=""/>
    <tripinfo id="flow_11.5" depart="59.00" departLane="-gneE10_0" departPos="5.10" departSpeed="0.00" departDelay="49.00" arrival="159.00" arrivalLane="gneE14_1" arrivalPos="100.00" arrivalSpeed="11.20" duration="100.00" routeLength="395.10" waitingTime="57.00" waitingCount="1" stopTime="0.00" timeLoss="67.52" rerouteNo="0" devices="tripinfo_flow_11.5 routing_flow_11.5" vType="DEFAULT_VEHTYPE" speedFactor="0.88" vaporized=""/>
    <tripinfo id="flow_0.18" depart="54.00" departLane="-gneE14_0" departPos="5.10" departSpeed="0.00" departDelay="18.00" arrival="159.00" arrivalLane="gneE10_0" arrivalPos="100.00" arrivalSpeed="13.62" duration="105.00" routeLength="395.10" waitingTime="63.00" waitingCount="1" stopTime="0.00" timeLoss="77.50" rerouteNo="0" devices="tripinfo_flow_0.18 routing_flow_0.18" vType="DEFAULT_VEHTYPE" speedFactor="1.07" vaporized=""/>
    <tripinfo id="flow_0.23" depart="69.00" departLane="-gneE14_0" departPos="5.10" departSpeed="0.00" departDelay="23.00" arrival="160.00" arrivalLane="gneE10_1" arrivalPos="100.00" arrivalSpeed="12.49" duration="91.00" routeLength="395.10" waitingTime="49.00" waitingCount="1" stopTime="0.00" timeLoss="61.97" rerouteNo="0" devices="tripinfo_flow_0.23 routing_flow_0.23" vType="DEFAULT_VEHTYPE" speedFactor="0.99" vaporized=""/>
    <tripinfo id="flow_0.25" depart="75.00" departLane="-gneE14_0" departPos="5.10" departSpeed="0.00" departDelay="25.00" arrival="160.00" arrivalLane="gneE10_2" arrivalPos="100.00" arrivalSpeed="13.60" duration="85.00" routeLength="395.10" waitingTime="41.00" waitingCount="1" stopTime="0.00" timeLoss="55.08" rerouteNo="0" devices="tripinfo_flow_0.25 routing_flow_0.25" vType="DEFAULT_VEHTYPE" speedFactor="0.98" vaporized=""/>
    <tripinfo id="flow_11.6" depart="70.00" departLane="-gneE10_0" departPos="5.10" departSpeed="0.00" departDelay="58.00" arrival="161.00" arrivalLane="gneE14_1" arrivalPos="100.00" arrivalSpeed="12.98" duration="91.00" routeLength="395.10" waitingTime="47.00" waitingCount="1" stopTime="0.00" timeLoss="61.39" rerouteNo="0" devices="tripinfo_flow_11.6 routing_flow_11.6" vType="DEFAULT_VEHTYPE" speedFactor="0.98" vaporized=""/>
    <tripinfo id="flow_4.5" depart="62.00" departLane="-gneE10_0" departPos="5.10" departSpeed="0.00" departDelay="52.00" arrival="162.00" arrivalLane="gneE14_0" arrivalPos="100.00" arrivalSpeed="13.65" duration="100.00" routeLength="395.10" waitingTime="55.00" waitingCount="1" stopTime="0.00" timeLoss="71.89" rerouteNo="0" devices="tripinfo_flow_4.5 routing_flow_4.5" vType="DEFAULT_VEHTYPE" speedFactor="1.04" vaporized=""/>
    <tripinfo id="flow_4.6" depart="73.00" departLane="-gneE10_0" departPos="5.10" departSpeed="0.00" departDelay="61.00" arrival="162.00" arrivalLane="gneE14_1" arrivalPos="100.00" arrivalSpeed="13.54" duration="89.00" routeLength="395.10" waitingTime="46.00" waitingCount="1" stopTime="0.00" timeLoss="61.50" rerouteNo="0" devices="tripinfo_flow_4.6 routing_flow_4.6" vType="DEFAULT_VEHTYPE" speedFactor="1.03" vaporized=""/>
    <tripinfo id="flow_0.21" depart="63.00" departLane="-gneE14_0" departPos="5.10" departSpeed="0.00" departDelay="21.00" arrival="162.00" arrivalLane="gneE10_0" arrivalPos="100.00" arrivalSpeed="11.35" duration="99.00" routeLength="395.10" waitingTime="54.00" waitingCount="1" stopTime="0.00" timeLoss="65.76" rerouteNo="0" devices="tripinfo_flow_0.21 routing_flow_0.21" vType="DEFAULT_VEHTYPE" speedFactor="0.88" vaporized=""/>
    <tripinfo id="flow_0.26" depart="78.00" departLane="-gneE14_0" departPos="5.10" departSpeed="0.00" departDelay="26.00" arrival="162.00" arrivalLane="gneE10_1" arrivalPos="100.00" arrivalSpeed="16.23" duration="84.00" routeLength="395.10" waitingTime="41.00" waitingCount="1" stopTime="0.00" timeLoss="59.71" rerouteNo="0" devices="tripinfo_flow_0.26 routing_flow_0.26" vType="DEFAULT_VEHTYPE" speedFactor="1.21" vaporized=""/>
    <tripinfo id="flow_0.28" depart="84.00" departLane="-gneE14_0" departPos="5.10" departSpeed="0.00" departDelay="28.00" arrival="162.00" arrivalLane="gneE10_2" arrivalPos="100.00" arrivalSpeed="13.19" duration="78.00" routeLength="395.10" waitingTime="35.00" waitingCount="1" stopTime="0.00" timeLoss="47.91" rerouteNo="0" devices="tripinfo_flow_0.28 routing_flow_0.28" vType="DEFAULT_VEHTYPE" speedFactor="0.96" vaporized=""/>