<?xml version="1.0" encoding="UTF-8"?>

<!-- generated on 12/28/20 05:07:17 by Eclipse SUMO GUI Version 1.8.0
<configuration xmlns:xsi="http://www.w3.org/2001/XMLSchema-instance" xsi:noNamespaceSchemaLocation="http://sumo.dlr.de/xsd/sumoConfiguration.xsd">

    <input>
        <net-file value="data/cross.net.xml"/>
        <route-files value="data/cross.rou.xml"/>
        <additional-files value="data/cross.det.xml"/>
    </input>

    <output>
        <tripinfo-output value="tripinfo.xml"/>
    </output>

    <time>
        <begin value="0"/>
    </time>

    <report>
        <verbose value="true"/>
        <no-step-log value="true"/>
    </report>

    <traci_server>
        <remote-port value="50170"/>
    </traci_server>

</configuration>
-->

<tripinfos xmlns:xsi="http://www.w3.org/2001/XMLSchema-instance" xsi:noNamespaceSchemaLocation="http://sumo.dlr.de/xsd/tripinfo_file.xsd">
    <tripinfo id="right_0" depart="3.00" departLane="51o_0" departPos="5.10" departSpeed="0.00" departDelay="0.00" arrival="92.00" arrivalLane="52i_0" arrivalPos="10.00" arrivalSpeed="11.86" duration="89.00" routeLength="1015.10" waitingTime="0.00" waitingCount="0" stopTime="0.00" timeLoss="14.99" rerouteNo="0" devices="tripinfo_right_0" vType="typeWE" speedFactor="1.06" vaporized=""/>
    <tripinfo id="left_4" depart="13.00" departLane="52o_0" departPos="5.10" departSpeed="0.00" departDelay="0.00" arrival="102.00" arrivalLane="51i_0" arrivalPos="10.00" arrivalSpeed="11.18" duration="89.00" routeLength="1015.10" waitingTime="0.00" waitingCount="0" stopTime="0.00" timeLoss="14.35" rerouteNo="0" devices="tripinfo_left_4" vType="typeWE" speedFactor="1.03" vaporized=""/>
    <tripinfo id="right_1" depart="8.00" departLane="51o_0" departPos="5.10" departSpeed="0.00" departDelay="4.00" arrival="103.00" arrivalLane="52i_0" arrivalPos="10.00" arrivalSpeed="10.70" duration="95.00" routeLength="1015.10" waitingTime="0.00" waitingCount="0" stopTime="0.00" timeLoss="15.27" rerouteNo="0" devices="tripinfo_right_1" vType="typeWE" speedFactor="0.94" vaporized=""/>
    <tripinfo id="right_3" depart="13.00" departLane="51o_0" departPos="5.10" departSpeed="0.00" departDelay="4.00" arrival="104.00" arrivalLane="52i_0" arrivalPos="10.00" arrivalSpeed="10.71" duration="91.00" routeLength="1015.10" waitingTime="0.00" waitingCount="0" stopTime="0.00" timeLoss="18.45" rerouteNo="0" devices="tripinfo_right_3" vType="typeWE" speedFactor="1.08" vaporized=""/>
    <tripinfo id="left_5" depart="18.00" departLane="52o_0" departPos="5.10" departSpeed="0.00" departDelay="4.00" arrival="119.00" arrivalLane="51i_0" arrivalPos="10.00" arrivalSpeed="9.43" duration="101.00" routeLength="1015.10" waitingTime="0.00" waitingCount="0" stopTime="0.00" timeLoss="14.58" rerouteNo="0" devices="tripinfo_left_5" vType="typeWE" speedFactor="0.83" vaporized=""/>
    <tripinfo id="left_6" depart="29.00" departLane="52o_0" departPos="5.10" departSpeed="0.00" departDelay="0.00" arrival="121.00" arrivalLane="51i_0" arrivalPos="10.00" arrivalSpeed="10.26" duration="92.00" routeLength="1015.10" waitingTime="0.00" waitingCount="0" stopTime="0.00" timeLoss="17.77" rerouteNo="0" devices="tripinfo_left_6" vType="typeWE" speedFactor="1.05" vaporized=""/>
    <tripinfo id="right_9" depart="42.00" departLane="51o_0" departPos="5.10" departSpeed="0.00" departDelay="0.00" arrival="141.00" arrivalLane="52i_0" arrivalPos="10.00" arrivalSpeed="10.03" duration="99.00" routeLength="1015.10" waitingTime="0.00" waitingCount="0" stopTime="0.00" timeLoss="14.93" rerouteNo="0" devices="tripinfo_right_9" vType="typeWE" speedFactor="0.86" vaporized=""/>
    <tripinfo id="down_2" depart="6.00" departLane="54o_0" departPos="7.10" departSpeed="0.00" departDelay="0.00" arrival="166.00" arrivalLane="53i_0" arrivalPos="10.00" arrivalSpeed="11.51" duration="160.00" routeLength="1013.10" waitingTime="59.00" waitingCount="1" stopTime="0.00" timeLoss="89.27" rerouteNo="0" devices="tripinfo_down_2" vType="typeNS" speedFactor="1.01" vaporized=""/>
    <tripinfo id="down_7" depart="33.00" departLane="54o_0" departPos="7.10" departSpeed="0.00" departDelay="0.00" arrival="174.00" arrivalLane="53i_0" arrivalPos="10.00" arrivalSpeed="10.10" duration="141.00" routeLength="1013.10" waitingTime="34.00" waitingCount="1" stopTime="0.00" timeLoss="60.19" rerouteNo="0" devices="tripinfo_down_7" vType="typeNS" speedFactor="0.89" vaporized=""/>
    <tripinfo id="down_8" depart="41.00" departLane="54o_0" departPos="7.10" departSpeed="0.00" departDelay="0.00" arrival="176.00" arrivalLane="53i_0" arrivalPos="10.00" arrivalSpeed="10.18" duration="135.00" routeLength="1013.10" waitingTime="28.00" waitingCount="1" stopTime="0.00" timeLoss="58.79" rerouteNo="0" devices="tripinfo_down_8" vType="typeNS" speedFactor="0.94" vaporized=""/>
    <tripinfo id="left_10" depart="43.00" departLane="52o_0" departPos="5.10" departSpeed="0.00" departDelay="0.00" arrival="208.00" arrivalLane="51i_0" arrivalPos="10.00" arrivalSpeed="11.97" duration="165.00" routeLength="1015.10" waitingTime="64.00" waitingCount="1" stopTime="0.00" timeLoss="92.77" rerouteNo="0" devices="tripinfo_left_10" vType="typeWE" speedFactor="1.09" vaporized=""/>
    <tripinfo id="right_11" depart="55.00" departLane="51o_0" departPos="5.10" departSpeed="0.00" departDelay="0.00" arrival="210.00" arrivalLane="52i_0" arrivalPos="10.00" arrivalSpeed="11.97" duration="155.00" routeLength="1015.10" waitingTime="54.00" waitingCount="1" stopTime="0.00" timeLoss="80.25" rerouteNo="0" devices="tripinfo_right_11" vType="typeWE" speedFactor="1.03" vaporized=""/>
    <tripinfo id="left_13" depart="65.00" departLane="52o_0" departPos="5.10" departSpeed="0.00" departDelay="0.00" arrival="210.00" arrivalLane="51i_0" arrivalPos="10.00" arrivalSpeed="12.75" duration="145.00" routeLength="1015.10" waitingTime="45.00" waitingCount="1" stopTime="0.00" timeLoss="73.79" rerouteNo="0" devices="tripinfo_left_13" vType="typeWE" speedFactor="1.12" vaporized=""/>
    <tripinfo id="right_12" depart="61.00" departLane="51o_0" departPos="5.10" departSpeed="0.00" departDelay="0.00" arrival="212.00" arrivalLane="52i_0" arrivalPos="10.00" arrivalSpeed="11.89" duration="151.00" routeLength="1015.10" waitingTime="47.00" waitingCount="1" stopTime="0.00" timeLoss="77.18" rerouteNo="0" devices="tripinfo_right_12" vType="typeWE" speedFactor="1.05" vaporized=""/>
    <tripinfo id="right_14" depart="69.00" departLane="51o_0" departPos="5.10" departSpeed="0.00" departDelay="0.00" arrival="216.00" arrivalLane="52i_0" arrivalPos="10.00" arrivalSpeed="11.31" duration="147.00" routeLength="1015.10" waitingTime="44.00" waitingCount="1" stopTime="0.00" timeLoss="70.58" rerouteNo="0" devices="tripinfo_right_14" vType="typeWE" speedFactor="0.99" vaporized=""/>
    <tripinfo id="left_15" depart="74.00" departLane="52o_0" departPos="5.10" departSpeed="0.00" departDelay="0.00" arrival="219.00" arrivalLane="51i_0" arrivalPos="10.00" arrivalSpeed="11.04" duration="145.00" routeLength="1015.10" waitingTime="39.00" waitingCount="1" stopTime="0.00" timeLoss="65.36" rerouteNo="0" devices="tripinfo_left_15" vType="typeWE" speedFactor="0.93" vaporized=""/>
    <tripinfo id="right_17" depart="84.00" departLane="51o_0" departPos="5.10" departSpeed="0.00" departDelay="0.00" arrival="220.00" arrivalLane="52i_0" arrivalPos="10.00" arrivalSpeed="10.92" duration="136.00" routeLength="1015.10" waitingTime="30.00" waitingCount="1" stopTime="0.00" timeLoss="57.12" rerouteNo="0" devices="tripinfo_right_17" vType="typeWE" speedFactor="0.94" vaporized=""/>
    <tripinfo id="right_20" depart="99.00" departLane="51o_0" departPos="5.10" departSpeed="0.00" departDelay="0.00" arrival="222.00" arrivalLane="52i_0" arrivalPos="10.00" arrivalSpeed="11.12" duration="123.00" routeLength="1015.10" waitingTime="17.00" waitingCount="1" stopTime="0.00" timeLoss="47.55" rerouteNo="0" devices="tripinfo_right_20" vType="typeWE" speedFactor="1.02" vaporized=""/>
    <tripinfo id="left_16" depart="79.00" departLane="52o_0" departPos="5.10" departSpeed="0.00" departDelay="3.00" arrival="224.00" arrivalLane="51i_0" arrivalPos="10.00" arrivalSpeed="10.36" duration="145.00" routeLength="1015.10" waitingTime="34.00" waitingCount="1" stopTime="0.00" timeLoss="62.36" rerouteNo="0" devices="tripinfo_left_16" vType="typeWE" speedFactor="0.88" vaporized=""/>
    <tripinfo id="right_21" depart="108.00" departLane="51o_0" departPos="5.10" departSpeed="0.00" departDelay="0.00" arrival="224.00" arrivalLane="52i_0" arrivalPos="10.00" arrivalSpeed="11.66" duration="116.00" routeLength="1015.10" waitingTime="8.00" waitingCount="1" stopTime="0.00" timeLoss="40.00" rerouteNo="0" devices="tripinfo_right_21" vType="typeWE" speedFactor="1.01" vaporized=""/>
    <tripinfo id="left_18" depart="89.00" departLane="52o_0" departPos="5.10" departSpeed="0.00" departDelay="0.00" arrival="226.00" arrivalLane="51i_0" arrivalPos="10.00" arrivalSpeed="10.77" duration="137.00" routeLength="1015.10" waitingTime="28.00" waitingCount="1" stopTime="0.00" timeLoss="57.34" rerouteNo="0" devices="tripinfo_left_18" vType="typeWE" speedFactor="0.94" vaporized=""/>
    <tripinfo id="right_22" depart="114.00" departLane="51o_0" departPos="5.10" departSpeed="0.00" departDelay="0.00" arrival="226.00" arrivalLane="52i_0" arrivalPos="10.00" arrivalSpeed="11.10" duration="112.00" routeLength="1015.10" waitingTime="4.00" waitingCount="1" stopTime="0.00" timeLoss="34.12" rerouteNo="0" devices="tripinfo_right_22" vType="typeWE" speedFactor="0.98" vaporized=""/>
    <tripinfo id="left_19" depart="96.00" departLane="52o_0" departPos="5.10" departSpeed="0.00" departDelay="0.00" arrival="227.00" arrivalLane="51i_0" arrivalPos="10.00" arrivalSpeed="10.92" duration="131.00" routeLength="1015.10" waitingTime="22.00" waitingCount="1" stopTime="0.00" timeLoss="61.19" rerouteNo="0" devices="tripinfo_left_19" vType="typeWE" speedFactor="1.16" vaporized=""/>
    <tripinfo id="left_23" depart="122.00" departLane="52o_0" departPos="5.10" departSpeed="0.00" departDelay="0.00" arrival="229.00" arrivalLane="51i_0" arrivalPos="10.00" arrivalSpeed="10.39" duration="107.00" routeLength="1015.10" waitingTime="0.00" waitingCount="0" stopTime="0.00" timeLoss="25.33" rerouteNo="0" devices="tripinfo_left_23" vType="typeWE" speedFactor="0.89" vaporized=""/>
    <tripinfo id="left_26" depart="141.00" departLane="52o_0" departPos="5.10" departSpeed="0.00" departDelay="2.00" arrival="235.00" arrivalLane="51i_0" arrivalPos="10.00" arrivalSpeed="10.65" duration="94.00" routeLength="1015.10" waitingTime="0.00" waitingCount="0" stopTime="0.00" timeLoss="13.86" rerouteNo="0" devices="tripinfo_left_26" vType="typeWE" speedFactor="0.92" vaporized=""/>
    <tripinfo id="right_24" depart="125.00" departLane="51o_0" departPos="5.10" departSpeed="0.00" departDelay="0.00" arrival="236.00" arrivalLane="52i_0" arrivalPos="10.00" arrivalSpeed="10.17" duration="111.00" routeLength="1015.10" waitingTime="0.00" waitingCount="0" stopTime="0.00" timeLoss="23.82" rerouteNo="0" devices="tripinfo_right_24" vType="typeWE" speedFactor="0.83" vaporized=""/>
    <tripinfo id="right_28" depart="145.00" departLane="51o_0" departPos="5.10" departSpeed="0.00" departDelay="0.00" arrival="237.00" arrivalLane="52i_0" arrivalPos="10.00" arrivalSpeed="10.32" duration="92.00" routeLength="1015.10" waitingTime="0.00" waitingCount="0" stopTime="0.00" timeLoss="21.37" rerouteNo="0" devices="tripinfo_right_28" vType="typeWE" speedFactor="1.13" vaporized=""/>
    <tripinfo id="down_25" depart="131.00" departLane="54o_0" departPos="7.10" departSpeed="0.00" departDelay="0.00" arrival="283.00" arrivalLane="53i_0" arrivalPos="10.00" arrivalSpeed="10.05" duration="152.00" routeLength="1013.10" waitingTime="45.00" waitingCount="1" stopTime="0.00" timeLoss="69.70" rerouteNo="0" devices="tripinfo_down_25" vType="typeNS" speedFactor="0.87" vaporized=""/>
    <tripinfo id="down_27" depart="142.00" departLane="54o_0" departPos="7.10" departSpeed="0.00" departDelay="0.00" arrival="285.00" arrivalLane="53i_0" arrivalPos="10.00" arrivalSpeed="10.26" duration="143.00" routeLength="1013.10" waitingTime="36.00" waitingCount="1" stopTime="0.00" timeLoss="67.42" rerouteNo="0" devices="tripinfo_down_27" vType="typeNS" speedFactor="0.95" vaporized=""/>
    <tripinfo id="down_29" depart="160.00" departLane="54o_0" departPos="7.10" departSpeed="0.00" departDelay="0.00" arrival="287.00" arrivalLane="53i_0" arrivalPos="10.00" arrivalSpeed="10.69" duration="127.00" routeLength="1013.10" waitingTime="20.00" waitingCount="1" stopTime="0.00" timeLoss="49.99" rerouteNo="0" devices="tripinfo_down_29" vType="typeNS" speedFactor="0.93" vaporized=""/>
    <tripinfo id="down_36" depart="199.00" departLane="54o_0" departPos="7.10" departSpeed="0.00" departDelay="0.00" arrival="290.00" arrivalLane="53i_0" arrivalPos="10.00" arrivalSpeed="11.46" duration="91.00" routeLength="1013.10" waitingTime="0.00" waitingCount="0" stopTime="0.00" timeLoss="17.41" rerouteNo="0" devices="tripinfo_down_36" vType="typeNS" speedFactor="0.97" vaporized=""/>
    <tripinfo id="right_30" depart="167.00" departLane="51o_0" departPos="5.10" departSpeed="0.00" departDelay="0.00" arrival="318.00" arrivalLane="52i_0" arrivalPos="10.00" arrivalSpeed="13.13" duration="151.00" routeLength="1015.10" waitingTime="53.00" waitingCount="1" stopTime="0.00" timeLoss="81.55" rerouteNo="0" devices="tripinfo_right_30" vType="typeWE" speedFactor="1.18" vaporized=""/>
    <tripinfo id="right_31" depart="172.00" departLane="51o_0" departPos="5.10" departSpeed="0.00" departDelay="4.00" arrival="320.00" arrivalLane="52i_0" arrivalPos="10.00" arrivalSpeed="12.56" duration="148.00" routeLength="1015.10" waitingTime="51.00" waitingCount="1" stopTime="0.00" timeLoss="78.09" rerouteNo="0" devices="tripinfo_right_31" vType="typeWE" speedFactor="1.15" vaporized=""/>
    <tripinfo id="left_32" depart="172.00" departLane="52o_0" departPos="5.10" departSpeed="0.00" departDelay="0.00" arrival="322.00" arrivalLane="51i_0" arrivalPos="10.00" arrivalSpeed="11.68" duration="150.00" routeLength="1015.10" waitingTime="48.00" waitingCount="1" stopTime="0.00" timeLoss="74.43" rerouteNo="0" devices="tripinfo_left_32" vType="typeWE" speedFactor="1.01" vaporized=""/>
    <tripinfo id="right_33" depart="177.00" departLane="51o_0" departPos="5.10" departSpeed="0.00" departDelay="1.00" arrival="322.00" arrivalLane="52i_0" arrivalPos="10.00" arrivalSpeed="13.55" duration="145.00" routeLength="1015.10" waitingTime="47.00" waitingCount="1" stopTime="0.00" timeLoss="75.40" rerouteNo="0" devices="tripinfo_right_33" vType="typeWE" speedFactor="1.17" vaporized=""/>
    <tripinfo id="left_40" depart="218.00" departLane="52o_0" departPos="5.10" departSpeed="0.00" departDelay="0.00" arrival="324.00" arrivalLane="51i_0" arrivalPos="10.00" arrivalSpeed="11.74" duration="106.00" routeLength="1015.10" waitingTime="4.00" waitingCount="1" stopTime="0.00" timeLoss="31.29" rerouteNo="0" devices="tripinfo_left_40" vType="typeWE" speedFactor="1.03" vaporized=""/>
    <tripinfo id="left_41" depart="227.00" departLane="52o_0" departPos="5.10" departSpeed="0.00" departDelay="0.00" arrival="328.00" arrivalLane="51i_0" arrivalPos="10.00" arrivalSpeed="11.05" duration="101.00" routeLength="1015.10" waitingTime="0.00" waitingCount="0" stopTime="0.00" timeLoss="22.95" rerouteNo="0" devices="tripinfo_left_41" vType="typeWE" speedFactor="0.96" vaporized=""/>
    <tripinfo id="right_34" depart="182.00" departLane="51o_0" departPos="5.10" departSpeed="0.00" departDelay="1.00" arrival="329.00" arrivalLane="52i_0" arrivalPos="10.00" arrivalSpeed="11.49" duration="147.00" routeLength="1015.10" waitingTime="43.00" waitingCount="1" stopTime="0.00" timeLoss="70.78" rerouteNo="0" devices="tripinfo_right_34" vType="typeWE" speedFactor="0.99" vaporized=""/>
    <tripinfo id="left_43" depart="238.00" departLane="52o_0" departPos="5.10" departSpeed="0.00" departDelay="0.00" arrival="330.00" arrivalLane="51i_0" arrivalPos="10.00" arrivalSpeed="12.05" duration="92.00" routeLength="1015.10" waitingTime="0.00" waitingCount="0" stopTime="0.00" timeLoss="17.32" rerouteNo="0" devices="tripinfo_left_43" vType="typeWE" speedFactor="1.04" vaporized=""/>
    <tripinfo id="right_35" depart="187.00" departLane="51o_0" departPos="5.10" departSpeed="0.00" departDelay="4.00" arrival="331.00" arrivalLane="52i_0" arrivalPos="10.00" arrivalSpeed="11.89" duration="144.00" routeLength="1015.10" waitingTime="39.00" waitingCount="1" stopTime="0.00" timeLoss="68.69" rerouteNo="0" devices="tripinfo_right_35" vType="typeWE" speedFactor="1.02" vaporized=""/>
    <tripinfo id="left_45" depart="243.00" departLane="52o_0" departPos="5.10" departSpeed="0.00" departDelay="1.00" arrival="331.00" arrivalLane="51i_0" arrivalPos="10.00" arrivalSpeed="11.71" duration="88.00" routeLength="1015.10" waitingTime="0.00" waitingCount="0" stopTime="0.00" timeLoss="15.72" rerouteNo="0" devices="tripinfo_left_45" vType="typeWE" speedFactor="1.09" vaporized=""/>
    <tripinfo id="right_37" depart="200.00" departLane="51o_0" departPos="5.10" departSpeed="0.00" departDelay="0.00" arrival="333.00" arrivalLane="52i_0" arrivalPos="10.00" arrivalSpeed="12.38" duration="133.00" routeLength="1015.10" waitingTime="28.00" waitingCount="1" stopTime="0.00" timeLoss="63.29" rerouteNo="0" devices="tripinfo_right_37" vType="typeWE" speedFactor="1.18" vaporized=""/>
    <tripinfo id="right_39" depart="217.00" departLane="51o_0" departPos="5.10" departSpeed="0.00" departDelay="0.00" arrival="340.00" arrivalLane="52i_0" arrivalPos="10.00" arrivalSpeed="10.29" duration="123.00" routeLength="1015.10" waitingTime="12.00" waitingCount="1" stopTime="0.00" timeLoss="41.52" rerouteNo="0" devices="tripinfo_right_39" vType="typeWE" speedFactor="0.90" vaporized=""/>
    <tripinfo id="right_42" depart="229.00" departLane="51o_0" departPos="5.10" departSpeed="0.00" departDelay="1.00" arrival="341.00" arrivalLane="52i_0" arrivalPos="10.00" arrivalSpeed="10.27" duration="112.00" routeLength="1015.10" waitingTime="2.00" waitingCount="2" stopTime="0.00" timeLoss="39.99" rerouteNo="0" devices="tripinfo_right_42" vType="typeWE" speedFactor="1.09" vaporized=""/>
    <tripinfo id="right_44" depart="240.00" departLane="51o_0" departPos="5.10" departSpeed="0.00" departDelay="0.00" arrival="343.00" arrivalLane="52i_0" arrivalPos="10.00" arrivalSpeed="10.96" duration="103.00" routeLength="1015.10" waitingTime="0.00" waitingCount="0" stopTime="0.00" timeLoss="28.81" rerouteNo="0" devices="tripinfo_right_44" vType="typeWE" speedFactor="1.04" vaporized=""/>
    <tripinfo id="down_38" depart="212.00" departLane="54o_0" departPos="7.10" departSpeed="0.00" departDelay="0.00" arrival="386.00" arrivalLane="53i_0" arrivalPos="10.00" arrivalSpeed="12.81" duration="174.00" routeLength="1013.10" waitingTime="76.00" waitingCount="1" stopTime="0.00" timeLoss="108.76" rerouteNo="0" devices="tripinfo_down_38" vType="typeNS" speedFactor="1.10" vaporized=""/>
    <tripinfo id="left_46" depart="283.00" departLane="52o_0" departPos="5.10" departSpeed="0.00" departDelay="0.00" arrival="433.00" arrivalLane="51i_0" arrivalPos="10.00" arrivalSpeed="11.33" duration="150.00" routeLength="1015.10" waitingTime="47.00" waitingCount="1" stopTime="0.00" timeLoss="73.58" rerouteNo="0" devices="tripinfo_left_46" vType="typeWE" speedFactor="1.00" vaporized=""/>
    <tripinfo id="left_52" depart="302.00" departLane="52o_0" departPos="5.10" departSpeed="0.00" departDelay="0.00" arrival="435.00" arrivalLane="51i_0" arrivalPos="10.00" arrivalSpeed="11.46" duration="133.00" routeLength="1015.10" waitingTime="30.00" waitingCount="1" stopTime="0.00" timeLoss="57.13" rerouteNo="0" devices="tripinfo_left_52" vType="typeWE" speedFactor="1.02" vaporized=""/>
    <tripinfo id="left_53" depart="318.00" departLane="52o_0" departPos="5.10" departSpeed="0.00" departDelay="0.00" arrival="436.00" arrivalLane="51i_0" arrivalPos="10.00" arrivalSpeed="11.42" duration="118.00" routeLength="1015.10" waitingTime="16.00" waitingCount="1" stopTime="0.00" timeLoss="46.04" rerouteNo="0" devices="tripinfo_left_53" vType="typeWE" speedFactor="1.10" vaporized=""/>
    <tripinfo id="right_47" depart="284.00" departLane="51o_0" departPos="5.10" departSpeed="0.00" departDelay="0.00" arrival="438.00" arrivalLane="52i_0" arrivalPos="10.00" arrivalSpeed="10.69" duration="154.00" routeLength="1015.10" waitingTime="47.00" waitingCount="1" stopTime="0.00" timeLoss="72.66" rerouteNo="0" devices="tripinfo_right_47" vType="typeWE" speedFactor="0.90" vaporized=""/>
    <tripinfo id="left_55" depart="323.00" departLane="52o_0" departPos="5.10" departSpeed="0.00" departDelay="0.00" arrival="440.00" arrivalLane="51i_0" arrivalPos="10.00" arrivalSpeed="11.48" duration="117.00" routeLength="1015.10" waitingTime="13.00" waitingCount="1" stopTime="0.00" timeLoss="40.45" rerouteNo="0" devices="tripinfo_left_55" vType="typeWE" speedFactor="1.00" vaporized=""/>
    <tripinfo id="right_48" depart="289.00" departLane="51o_0" departPos="5.10" departSpeed="0.00" departDelay="3.00" arrival="441.00" arrivalLane="52i_0" arrivalPos="10.00" arrivalSpeed="10.30" duration="152.00" routeLength="1015.10" waitingTime="43.00" waitingCount="1" stopTime="0.00" timeLoss="69.49" rerouteNo="0" devices="tripinfo_right_48" vType="typeWE" speedFactor="0.88" vaporized=""/>
    <tripinfo id="right_49" depart="294.00" departLane="51o_0" departPos="5.10" departSpeed="0.00" departDelay="6.00" arrival="445.00" arrivalLane="52i_0" arrivalPos="10.00" arrivalSpeed="10.16" duration="151.00" routeLength="1015.10" waitingTime="40.00" waitingCount="1" stopTime="0.00" timeLoss="66.31" rerouteNo="0" devices="tripinfo_right_49" vType="typeWE" speedFactor="0.85" vaporized=""/>
    <tripinfo id="left_56" depart="333.00" departLane="52o_0" departPos="5.10" departSpeed="0.00" departDelay="2.00" arrival="446.00" arrivalLane="51i_0" arrivalPos="10.00" arrivalSpeed="10.19" duration="113.00" routeLength="1015.10" waitingTime="5.00" waitingCount="1" stopTime="0.00" timeLoss="31.76" rerouteNo="0" devices="tripinfo_left_56" vType="typeWE" speedFactor="0.90" vaporized=""/>
    <tripinfo id="right_50" depart="300.00" departLane="51o_0" departPos="5.10" departSpeed="0.00" departDelay="9.00" arrival="447.00" arrivalLane="52i_0" arrivalPos="10.00" arrivalSpeed="10.05" duration="147.00" routeLength="1015.10" waitingTime="36.00" waitingCount="1" stopTime="0.00" timeLoss="62.53" rerouteNo="0" devices="tripinfo_right_50" vType="typeWE" speedFactor="0.85" vaporized=""/>
    <tripinfo id="right_51" depart="305.00" departLane="51o_0" departPos="5.10" departSpeed="0.00" departDelay="11.00" arrival="448.00" arrivalLane="52i_0" arrivalPos="10.00" arrivalSpeed="9.76" duration="143.00" routeLength="1015.10" waitingTime="31.00" waitingCount="1" stopTime="0.00" timeLoss="73.71" rerouteNo="0" devices="tripinfo_right_51" vType="typeWE" speedFactor="1.17" vaporized=""/>
    <tripinfo id="left_57" depart="341.00" departLane="52o_0" departPos="5.10" departSpeed="0.00" departDelay="4.00" arrival="448.00" arrivalLane="51i_0" arrivalPos="10.00" arrivalSpeed="10.91" duration="107.00" routeLength="1015.10" waitingTime="0.00" waitingCount="0" stopTime="0.00" timeLoss="36.23" rerouteNo="0" devices="tripinfo_left_57" vType="typeWE" speedFactor="1.14" vaporized=""/>
    <tripinfo id="right_54" depart="322.00" departLane="51o_0" departPos="5.10" departSpeed="0.00" departDelay="0.00" arrival="450.00" arrivalLane="52i_0" arrivalPos="10.00" arrivalSpeed="10.30" duration="128.00" routeLength="1015.10" waitingTime="17.00" waitingCount="1" stopTime="0.00" timeLoss="52.18" rerouteNo="0" devices="tripinfo_right_54" vType="typeWE" speedFactor="1.00" vaporized=""/>
    <tripinfo id="left_59" depart="346.00" departLane="52o_0" departPos="5.10" departSpeed="0.00" departDelay="2.00" arrival="450.00" arrivalLane="51i_0" arrivalPos="10.00" arrivalSpeed="11.10" duration="104.00" routeLength="1015.10" waitingTime="0.00" waitingCount="0" stopTime="0.00" timeLoss="25.91" rerouteNo="0" devices="tripinfo_left_59" vType="typeWE" speedFactor="0.97" vaporized=""/>
    <tripinfo id="left_60" depart="351.00" departLane="52o_0" departPos="5.10" departSpeed="0.00" departDelay="2.00" arrival="451.00" arrivalLane="51i_0" arrivalPos="10.00" arrivalSpeed="11.15" duration="100.00" routeLength="1015.10" waitingTime="0.00" waitingCount="0" stopTime="0.00" timeLoss="27.50" rerouteNo="0" devices="tripinfo_left_60" vType="typeWE" speedFactor="1.08" vaporized=""/>
    <tripinfo id="right_58" depart="342.00" departLane="51o_0" departPos="5.10" departSpeed="0.00" departDelay="0.00" arrival="452.00" arrivalLane="52i_0" arrivalPos="10.00" arrivalSpeed="11.06" duration="110.00" routeLength="1015.10" waitingTime="0.00" waitingCount="0" stopTime="0.00" timeLoss="34.81" rerouteNo="0" devices="tripinfo_right_58" vType="typeWE" speedFactor="1.02" vaporized=""/>
    <tripinfo id="left_61" depart="356.00" departLane="52o_0" departPos="5.10" departSpeed="0.00" departDelay="5.00" arrival="453.00" arrivalLane="51i_0" arrivalPos="10.00" arrivalSpeed="11.96" duration="97.00" routeLength="1015.10" waitingTime="0.00" waitingCount="0" stopTime="0.00" timeLoss="25.61" rerouteNo="0" devices="tripinfo_left_61" vType="typeWE" speedFactor="1.12" vaporized=""/>
    <tripinfo id="right_63" depart="354.00" departLane="51o_0" departPos="5.10" departSpeed="0.00" departDelay="0.00" arrival="454.00" arrivalLane="52i_0" arrivalPos="10.00" arrivalSpeed="10.97" duration="100.00" routeLength="1015.10" waitingTime="0.00" waitingCount="0" stopTime="0.00" timeLoss="22.87" rerouteNo="0" devices="tripinfo_right_63" vType="typeWE" speedFactor="0.99" vaporized=""/>
    <tripinfo id="left_62" depart="362.00" departLane="52o_0" departPos="5.10" departSpeed="0.00" departDelay="9.00" arrival="455.00" arrivalLane="51i_0" arrivalPos="10.00" arrivalSpeed="11.90" duration="93.00" routeLength="1015.10" waitingTime="0.00" waitingCount="0" stopTime="0.00" timeLoss="17.27" rerouteNo="0" devices="tripinfo_left_62" vType="typeWE" speedFactor="1.02" vaporized=""/>
    <tripinfo id="left_64" depart="367.00" departLane="52o_0" departPos="5.10" departSpeed="0.00" departDelay="13.00" arrival="463.00" arrivalLane="51i_0" arrivalPos="10.00" arrivalSpeed="10.52" duration="96.00" routeLength="1015.10" waitingTime="0.00" waitingCount="0" stopTime="0.00" timeLoss="16.87" rerouteNo="0" devices="tripinfo_left_64" vType="typeWE" speedFactor="0.94" vaporized=""/>
    <tripinfo id="left_65" depart="372.00" departLane="52o_0" departPos="5.10" departSpeed="0.00" departDelay="9.00" arrival="469.00" arrivalLane="51i_0" arrivalPos="10.00" arrivalSpeed="10.08" duration="97.00" routeLength="1015.10" waitingTime="0.00" waitingCount="0" stopTime="0.00" timeLoss="15.12" rerouteNo="0" devices="tripinfo_left_65" vType="typeWE" speedFactor="0.88" vaporized=""/>
    <tripinfo id="right_66" depart="375.00" departLane="51o_0" departPos="5.10" departSpeed="0.00" departDelay="0.00" arrival="472.00" arrivalLane="52i_0" arrivalPos="10.00" arrivalSpeed="10.68" duration="97.00" routeLength="1015.10" waitingTime="0.00" waitingCount="0" stopTime="0.00" timeLoss="16.12" rerouteNo="0" devices="tripinfo_right_66" vType="typeWE" speedFactor="0.91" vaporized=""/>
    <tripinfo id="left_67" depart="377.00" departLane="52o_0" departPos="5.10" departSpeed="0.00" departDelay="0.00" arrival="472.00" arrivalLane="51i_0" arrivalPos="10.00" arrivalSpeed="10.33" duration="95.00" routeLength="1015.10" waitingTime="0.00" waitingCount="0" stopTime="0.00" timeLoss="14.95" rerouteNo="0" devices="tripinfo_left_67" vType="typeWE" speedFactor="0.91" vaporized=""/>
    <tripinfo id="down_70" depart="389.00" departLane="54o_0" departPos="7.10" departSpeed="0.00" departDelay="0.00" arrival="499.00" arrivalLane="53i_0" arrivalPos="10.00" arrivalSpeed="11.50" duration="110.00" routeLength="1013.10" waitingTime="11.00" waitingCount="1" stopTime="0.00" timeLoss="40.12" rerouteNo="0" devices="tripinfo_down_70" vType="typeNS" speedFactor="1.02" vaporized=""/>
    <tripinfo id="down_71" depart="394.00" departLane="54o_0" departPos="7.10" departSpeed="0.00" departDelay="3.00" arrival="503.00" arrivalLane="53i_0" arrivalPos="10.00" arrivalSpeed="10.55" duration="109.00" routeLength="1013.10" waitingTime="5.00" waitingCount="1" stopTime="0.00" timeLoss="35.43" rerouteNo="0" devices="tripinfo_down_71" vType="typeNS" speedFactor="0.97" vaporized=""/>
    <tripinfo id="left_68" depart="382.00" departLane="52o_0" departPos="5.10" departSpeed="0.00" departDelay="3.00" arrival="543.00" arrivalLane="51i_0" arrivalPos="10.00" arrivalSpeed="11.87" duration="161.00" routeLength="1015.10" waitingTime="61.00" waitingCount="1" stopTime="0.00" timeLoss="86.18" rerouteNo="0" devices="tripinfo_left_68" vType="typeWE" speedFactor="1.04" vaporized=""/>
    <tripinfo id="right_69" depart="383.00" departLane="51o_0" departPos="5.10" departSpeed="0.00" departDelay="0.00" arrival="543.00" arrivalLane="52i_0" arrivalPos="10.00" arrivalSpeed="12.04" duration="160.00" routeLength="1015.10" waitingTime="58.00" waitingCount="1" stopTime="0.00" timeLoss="84.46" rerouteNo="0" devices="tripinfo_right_69" vType="typeWE" speedFactor="1.02" vaporized=""/>
    <tripinfo id="left_73" depart="394.00" departLane="52o_0" departPos="5.10" departSpeed="0.00" departDelay="0.00" arrival="545.00" arrivalLane="51i_0" arrivalPos="10.00" arrivalSpeed="12.44" duration="151.00" routeLength="1015.10" waitingTime="49.00" waitingCount="1" stopTime="0.00" timeLoss="77.02" rerouteNo="0" devices="tripinfo_left_73" vType="typeWE" speedFactor="1.06" vaporized=""/>